% Model:              MLSGratIng2DV10_5.mph
% Version:            COMSOL 5.3.1.275
% Date:               Jan 4 2019, 20:34
% Dimension:          1
% Nodes:              200
% Expressions:        1
% Description:        Global
% x                       Height
25                        0.005447672994177038
25.125628140703515        0.004448958173026993
25.251256281407038        0.0035292595955837744
25.376884422110553        0.0026694894319845
25.502512562814072        0.0017714004444694602
25.628140703517587        2.753695785152239E-4
25.75376884422111         0.005096324801867006
25.879396984924625        0.0027444750681727284
26.00502512562814         0.002381839580965143
26.130653266331656        0.0024235319221322456
26.25628140703518         0.0027088466582652956
26.381909547738694        0.003193029764507056
26.50753768844221         0.0038552220927904886
26.633165829145728        0.004680819460341978
26.758793969849243        0.005656583482884499
26.884422110552766        0.006769194613195788
27.01005025125628         0.008005255487981379
27.135678391959797        0.009352641134761485
27.261306532663315        0.01080485622609691
27.38693467336683         0.0123768169349338
27.512562814070353        0.014193279348365746
27.63819095477387         0.018386973545064935
27.763819095477388        0.014917890416598937
27.889447236180903        0.01719438847296634
28.015075376884425        0.018792355243841263
28.14070351758794         0.020190468957607267
28.266331658291456        0.021442739866764943
28.39195979899498         0.022551568874713525
28.517587939698494        0.02350763655521901
28.643216080402013        0.024299070898059317
28.768844221105528        0.024914607219924258
28.894472361809044        0.02534513621625484
29.020100502512566        0.025584859879384744
29.14572864321608         0.02563274223678175
29.2713567839196          0.025495502257672508
29.396984924623116        0.02519687977397957
29.52261306532663         0.024822404080497042
29.648241206030153        0.02507156775674568
29.77386934673367         0.02079544749091813
29.899497487437184        0.020868800932860747
30.025125628140703        0.019836544920523207
30.150753768844222        0.01855117353527455
30.27638190954774         0.017123946172071507
30.402010050251256        0.01560354788073172
30.52763819095477         0.014024958961800976
30.653266331658287        0.01241833550684671
30.778894472361802        0.010810798500005995
30.90452261306533         0.009226229167754878
31.030150753768844        0.007684262719158705
31.15577889447236         0.006198870864991999
31.281407035175885        0.004776889637338643
31.4070351758794          0.0034176302506928593
31.532663316582916        0.002118417481401576
31.65829145728643         9.089857729269576E-4
31.783919597989946        4.516997067086225E-5
31.909547738693472        0.001405734305665887
32.03517587939699         0.028221724667378448
32.16080402010051         0.9251789250591258
32.28643216080402         0.09968687258730399
32.41206030150754         0.0465087505042579
32.537688442211056        0.033618933524250036
32.663316582914575        0.029133086632822713
32.788944723618094        0.027862430907967296
32.914572864321606        0.028377573851990537
33.040201005025125        0.03024494778251046
33.165829145728644        0.03344156268280216
33.29145728643216         0.03821728845146344
33.417085427135675        0.04510696700371439
33.5427135678392          0.0550395390740636
33.66834170854271         0.069567340590184
33.79396984924623         0.09129726978615209
33.91959798994975         0.12468942632777527
34.04522613065326         0.1775011179653905
34.17085427135679         0.263098773681936
34.29648241206031         0.4022925145271963
34.42211055276382         0.6144154323838417
34.54773869346734         0.8653319154110239
34.67336683417085         0.9984187658877162
34.798994974874375        0.9035126373570016
34.924623115577894        0.7013837175514563
35.050251256281406        0.5189704839918767
35.175879396984925        0.3858177592399882
35.30150753768844         0.29286469775575713
35.42713567839196         0.22729823934278143
35.55276381909548         0.17981352741728063
35.678391959798994        0.14443611553467448
35.80402010050251         0.11740811246540662
35.929648241206024        0.09634056479444995
36.05527638190955         0.07968380165499245
36.18090452261307         0.06641146476324417
36.30653266331658         0.05583395360852365
36.43216080402011         0.047490731062101874
36.55778894472362         0.04109626466820077
36.68341708542714         0.03653668218819944
36.80904522613065         0.033953463634196636
36.93467336683417         0.03409060593896042
37.060301507537694        0.03988831621812223
37.185929648241206        0.0688699546259532
37.311557788944725        0.629074087996307
37.43718592964824         0.045391896769820986
37.562814070351756        0.011688458894746874
37.68844221105528         0.008796318925700562
37.814070351758794        0.008660768001050676
37.93969849246231         0.009048186347080186
38.065326633165824        0.009546742219028986
38.19095477386934         0.010030632960520149
38.31658291457287         0.01043994054868729
38.44221105527638         0.010736087271787816
38.5678391959799          0.010891392782069633
38.69346733668341         0.010886757441892181
38.81909547738693         0.010711467061501851
38.94472361809046         0.010363508854433628
39.07035175879397         0.00984991892247006
39.19597989949749         0.009187001631195102
39.321608040201006        0.008400355214394457
39.44723618090452         0.00752466432552463
39.572864321608044        0.0066032265134363
39.698492462311556        0.00568718105774956
39.824120603015075        0.004834410003798641
39.949748743718594        0.004108082031718177
40.075376884422106        0.0035748013265510326
40.201005025125625        0.0033022685734757414
40.32663316582915         0.003356075148796437
40.45226130653266         0.0037934355661544293
40.57788944723618         0.004629518631701429
40.7035175879397          0.006805797155912806
40.82914572864322         0.008244865343764207
40.95477386934674         0.010727790879808323
41.08040201005025         0.013815642390513217
41.20603015075377         0.017481363863685057
41.331658291457295        0.021695883564112065
41.4572864321608          0.02641568160204137
41.582914572864325        0.03158146530956505
41.70854271356784         0.037119024132568915
41.834170854271356        0.04294103374827219
41.959798994974875        0.048949444340145
42.085427135678394        0.0550382407092033
42.21105527638191         0.06109639918587093
42.336683417085425        0.06701088657881896
42.46231155778895         0.07266956977199665
42.587939698492455        0.07796393381424131
42.71356783919598         0.08279153942445235
42.8391959798995          0.08705818457423198
42.96482412060302         0.09067976625956582
43.09045226130653         0.09358386572270919
43.21608040201005         0.09571110255606488
43.34170854271356         0.09701632134937037
43.467336683417095        0.09746969227956667
43.5929648241206          0.09705783191067989
43.718592964824126        0.09578509880680341
43.844221105527645        0.09367532759370893
43.969849246231156        0.0907745275929607
44.095477386934675        0.08715574441901124
44.221105527638194        0.0829291653111966
44.346733668341706        0.0782665541332242
44.472361809045225        0.07347225417832358
44.59798994974874         0.06925213365982309
44.72361809045227         0.06835296882163487
44.84924623115578         0.11967324738926942
44.9748743718593          0.0284262352638715
45.10050251256282         0.028179986878363365
45.22613065326633         0.024115581384749573
45.35175879396985         0.01923483252484975
45.47738693467337         0.014413688462912392
45.60301507537688         0.010029391856830754
45.7286432160804          0.006299685757870361
45.854271356783926        0.0033669226838853434
45.97989949748744         0.0013237913407437097
46.105527638190964        2.2214978838198282E-4
46.231155778894475        7.653856239573726E-5
46.356783919597994        8.663107420653028E-4
46.482412060301506        0.0025378922906270575
46.608040201005025        0.005007755292284967
46.733668341708544        0.008166260458901634
46.859296482412056        0.011882301809333846
46.98492462311558         0.016008564114838152
47.1105527638191          0.020387144556304887
47.23618090452261         0.024855276441153824
47.36180904522614         0.029250912913909983
47.48743718592964         0.03341797154722553
47.61306532663317         0.03721109584417964
47.73869346733668         0.040499846963993315
47.8643216080402          0.04317228980302159
47.989949748743726        0.0451379754533955
48.11557788944723         0.04633034305835754
48.24120603015076         0.046708566786280326
48.366834170854275        0.0462588590972774
48.49246231155779         0.04499521296684272
48.618090452261306        0.042959528620998
48.743718592964825        0.040221031873101165
48.86934673366834         0.03687486017254839
48.99497487437187         0.03303967878512867
49.120603015075375        0.028854202728507194
49.2462311557789          0.024472547694159276
49.37185929648241         0.020058418037746155
49.49748743718593         0.015778257182497545
49.62311557788945         0.011793619834890611
49.74874371859296         0.008253146075445092
49.87437185929648         0.005284570706195064
50                        0.0029870750236940594
